            #Ek_l1_s1              Vk_l1_s1             #Ek_l2_s1              Vk_l2_s1             #Ek_l3_s1              Vk_l3_s1
  -5.168334982128E-01    6.382081970158E-01   -5.172606653367E-01    6.381733155082E-01   -9.407973581834E-01    1.274528314572E+00
  -4.105493251429E-06   -1.814135212689E-01    6.213607606761E-05   -1.815491015824E-01   -1.132511911824E-05    2.795218020143E-01
   5.168359525965E-01    6.382123671445E-01    5.172510451812E-01    6.381983519420E-01    9.408008340019E-01    1.274532193801E+00
