            #Ek_l1_s1              Vk_l1_s1             #Ek_l2_s1              Vk_l2_s1
  -2.106040730276E+00    2.681271535169E-01   -4.946586167158E+00    3.527516874703E-01
  -1.054457708470E+00   -3.739226738125E-04   -1.061537614245E+00    1.172922632316E-02
   9.286469829291E-03   -6.771779954283E-11   -1.221907505060E-02    2.757823124161E-03
   1.039132835511E+00   -3.542072376252E-05    1.064392943352E+00    2.137506496525E-02
   2.110764597058E+00    2.658771098928E-01    4.946495717904E+00    3.516798309009E-01
