            #Ek_l1_s1              Vk_l1_s1             #Ek_l2_s1              Vk_l2_s1             #Ek_l3_s1              Vk_l3_s1
  -3.463256277492E+00    7.006392393510E-01   -3.268303529347E+00    6.928997944897E-01   -3.067384085736E+00    1.373019108452E+00
   2.068195637197E-03    6.491249982352E-03    3.847072188647E-02    2.884193847317E-03    1.767977163396E+00    6.939356168707E-01
   3.462529040785E+00    7.008333178968E-01    3.267677513692E+00    6.900581282900E-01    3.843004051901E+00    1.203448336831E+00
