            #Ek_l1_s1              Vk_l1_s1             #Ek_l2_s1              Vk_l2_s1             #Ek_l3_s1              Vk_l3_s1
  -5.083818410791E-01    6.368009182002E-01   -5.178822248424E-01    6.396757032796E-01   -9.358946548748E-01    1.274007514089E+00
   2.773124822574E-07   -1.806838476938E-01   -8.913106288200E-05   -1.815471645944E-01   -1.573894550190E-05    2.794007558469E-01
   5.083672182168E-01    6.368112645876E-01    5.178970772693E-01    6.396632480389E-01    9.358923463003E-01    1.273999890123E+00
