            #Ek_l1_s1              Vk_l1_s1             #Ek_l2_s1              Vk_l2_s1
  -2.002745078689E+00   -6.009768829573E-03   -1.984098213295E+00    1.443141403800E-01
  -4.842954576563E-01    2.434929800513E-01   -5.908068233367E-01    4.054972029475E-01
  -8.414028625196E-03   -7.001279498816E-02   -1.287764558845E-02    1.271962066920E-01
   3.601297692192E-01    1.680882569403E-01    3.454561980503E-01    3.673298099093E-01
   1.967580613550E+00    2.135255911431E-01    1.988434159015E+00    2.282776347709E-02
