            #Ek_l1_s1              Vk_l1_s1             #Ek_l2_s1              Vk_l2_s1
  -1.971459007772E+00    2.330679400669E-01   -2.110944838505E+00    1.225394928823E+00
  -4.695959434193E-01    6.089885983412E-01   -2.924997677343E-01    6.905774366712E-01
   8.355208369069E-05    1.787511528168E-01    4.383554910350E-04    2.326202800026E-01
   4.697720963156E-01    6.090400601839E-01    2.940211546784E-01    6.912502546179E-01
   1.971448112040E+00    2.331477287948E-01    2.110031847569E+00    1.224635999713E+00
