            #Ek_l1_s1              Vk_l1_s1             #Ek_l2_s1              Vk_l2_s1             #Ek_l3_s1              Vk_l3_s1
  -1.761329002863E+00    7.972240504981E-01   -2.485813750939E+00    9.443487737177E-01   -2.227825820688E+00    1.188007313923E+00
  -2.901345555161E-01   -3.322418508252E-01   -5.885488479659E-01    4.487785343052E-01    1.480442907643E+00    8.394313207078E-01
   3.745336863465E+00    8.801260840819E-01    2.944335075738E+00    1.035611837997E+00    4.089168593868E+00    8.971941555771E-01
