            #Ek_l1_s1              Vk_l1_s1             #Ek_l2_s1              Vk_l2_s1
  -4.845826411828E+00    6.983461821242E-01   -4.678681249642E+00    1.342792523903E+00
  -1.443451790223E+00   -9.006299210773E-02   -1.579388228432E+00   -3.583529577684E-01
   2.273855357779E-01   -4.021912291928E-03   -1.208528155304E-01    3.937220834490E-02
   1.443692670135E+00   -8.791095632802E-02    1.560472328819E+00   -3.822588023673E-01
   4.839349609582E+00    6.982872186022E-01    4.732192978416E+00    1.337913400913E+00
