            #Ek_l1_s1              Vk_l1_s1             #Ek_l2_s1              Vk_l2_s1
  -2.119083014712E+00    3.387146556639E-01   -1.978020421562E+00    3.451440347350E-01
  -1.041160434322E+00   -2.756032971201E-03   -5.115753999559E-01    4.792793612850E-01
  -1.340349258639E-03   -5.499391969176E-05   -4.348309254681E-03    1.755344580938E-01
   1.044569752698E+00    2.963643867635E-02    2.832148393886E-01    4.194622123060E-01
   2.065627763073E+00    3.388605561923E-01    2.069779047435E+00    5.534140222134E-01
