            #Ek_l1_s1              Vk_l1_s1             #Ek_l2_s1              Vk_l2_s1
  -4.846737910647E+00    6.987655554876E-01   -4.888606858401E+00    1.335924719259E+00
  -1.443573131595E+00   -8.829011917587E-02   -1.533508340478E+00   -4.121638632585E-01
   2.273892445254E-01   -3.248466294432E-03   -1.246189316780E-01    2.987943909563E-02
   1.443790010993E+00   -8.647468535198E-02    1.522396946106E+00   -4.224135842111E-01
   4.840312664078E+00    6.988552015037E-01    4.914323499784E+00    1.332722424564E+00
