            #Ek_l1_s1              Vk_l1_s1             #Ek_l2_s1              Vk_l2_s1             #Ek_l3_s1              Vk_l3_s1
  -3.186785528261E-01    3.136123560113E-01   -3.003754023294E-01    3.095855951382E-01   -3.172249067292E-01    3.132752046231E-01
   2.550790664491E-05    1.169272619589E-01   -1.443039333489E-04    1.151672144249E-01    2.723767413876E-05    1.167637392572E-01
   3.191214853087E-01    3.136645053757E-01    3.003339224569E-01    3.095211332222E-01    3.171392267692E-01    3.132791386921E-01
