            #Ek_l1_s1              Vk_l1_s1             #Ek_l2_s1              Vk_l2_s1
  -3.773768918428E+00    6.977817827433E-01   -2.005065801200E+00    6.775082290910E-01
  -1.522610203218E+00   -5.540380487797E-02   -1.352452481455E-01    5.356600947360E-01
  -2.694150724851E-01    3.805438584749E-02   -4.031414275265E+00   -1.079525334290E+00
   2.994872156497E+00   -2.232621830497E-02    8.522729669631E-02    4.424683981628E-01
   3.717451316723E+00   -6.991571243580E-01    2.007601564315E+00    1.198781706346E+00
