            #Ek_l1_s1              Vk_l1_s1             #Ek_l2_s1              Vk_l2_s1             #Ek_l3_s1              Vk_l3_s1
  -3.439682018292E+00    3.487935910541E-01   -2.984426582253E+00    6.719411326786E-01   -2.867493571655E+00    1.351616414931E+00
   8.779279649602E-03   -1.413913045619E-03   -6.380471863646E-04   -7.997686350876E-03    2.357197232709E-03   -8.736215108982E-02
   3.439294809454E+00    3.486953558399E-01    2.984224507122E+00    6.750092729916E-01    2.865314908041E+00    1.350975170868E+00
