            #Ek_l1_s1              Vk_l1_s1             #Ek_l2_s1              Vk_l2_s1
  -1.960731915687E+00   -8.048908811601E-02   -1.961326719044E+00   -7.162348522884E-02
  -3.002342730652E-01    3.092230646088E-01   -3.055765131323E-01    3.110193637224E-01
   1.517209618603E-04    1.177234240691E-01    2.002626358060E-04    1.181986791384E-01
   3.008290233705E-01    3.094398588382E-01    3.066343731166E-01    3.112218689480E-01
   1.960755196504E+00   -8.016387739269E-02    1.961355546758E+00   -7.134614959288E-02
