            #Ek_l1_s1              Vk_l1_s1             #Ek_l2_s1              Vk_l2_s1
  -1.962801563434E+00   -3.109686321342E-01   -1.962792948159E+00   -3.109762497964E-01
  -2.723907951272E-01    2.078147661133E-01   -2.725354647185E-01    2.078265674701E-01
   1.637717628390E-02    8.612403644008E-02    1.634998558300E-02    8.611033723297E-02
   3.769860686699E-01    2.698810534263E-01    3.770147849065E-01    2.698900028597E-01
   1.970693957196E+00   -2.127388238212E-01    1.970692521901E+00   -2.127389045675E-01
