            #Ek_l1_s1              Vk_l1_s1             #Ek_l2_s1              Vk_l2_s1             #Ek_l3_s1              Vk_l3_s1
  -4.170390667021E+00    3.633469253269E-01   -3.740818443475E+00    3.535924386561E-01   -3.975558518977E+00    3.595068956663E-01
  -2.635241802084E-02   -1.071072251957E-02   -1.639051406099E-01    9.211251536366E-03    1.804409158604E-01   -2.628028136540E-02
   3.620836006709E+00    3.512620242351E-01    3.681265939340E+00    3.525537875416E-01    4.118472229183E+00    3.612464859440E-01
