            #Ek_l1_s1              Vk_l1_s1             #Ek_l2_s1              Vk_l2_s1             #Ek_l3_s1              Vk_l3_s1
  -1.087942706432E+00    8.103121089139E-01   -1.635746580504E+00    9.981361433980E-01   -2.142378109143E+00    1.175356721619E+00
   2.000810067688E-02   -1.382942796258E-01    1.320823919210E-03    1.306884572192E-01    6.893357913700E-01    6.830039808528E-01
   3.692497847454E+00    8.785321111030E-01    2.814779961029E+00    1.029666068848E+00    4.110427598299E+00    1.047758142139E+00
