            #Ek_l1_s1              Vk_l1_s1             #Ek_l2_s1              Vk_l2_s1
  -2.497130619342E+00    3.443967823699E-01   -1.136787238410E+00    6.279773061793E-01
  -1.048230529019E+00   -1.497832645566E-02   -1.085076494452E-01    2.335534425920E-01
  -1.554608724223E-02   -1.950771128241E-04    3.372141238066E-02   -1.264880984443E-01
   1.050197512090E+00   -6.811685229140E-04    1.078979935693E+00   -1.155633199924E-01
   2.704667003470E+00    3.358851009711E-01    3.489022027127E+00    6.542363782089E-01
