            #Ek_l1_s1              Vk_l1_s1             #Ek_l2_s1              Vk_l2_s1
  -1.982823583709E+00    3.225043965822E-01   -2.001850669851E+00    9.985579140113E-01
  -5.227987429939E-01    5.904442878835E-01   -4.575585096402E-02    3.338042428247E-01
  -1.449449851448E-02   -1.845294140483E-01   -7.104242251379E-01   -8.733408013888E-01
   2.439430911153E-01    4.698121456626E-01    9.378288600496E-02    4.447323827690E-01
   1.935817000861E+00   -5.526786360008E-01    1.323007157336E+00    1.274121531376E+00
