            #Ek_l1_s1              Vk_l1_s1             #Ek_l2_s1              Vk_l2_s1
  -4.173420354643E+00    6.790950175210E-01   -4.613941312419E+00    1.352546072995E+00
  -1.440848312044E+00    9.327408272371E-03   -1.614223845056E+00   -3.152546067181E-01
   2.273031043499E-01    5.398273554623E-04   -6.817708954612E-02    1.013749491419E-02
   1.441835846084E+00    8.422385673570E-03    1.601784265588E+00   -3.383534359744E-01
   4.177505436884E+00    6.779805531949E-01    4.682819821752E+00    1.350474684793E+00
