            #Ek_l1_s1              Vk_l1_s1             #Ek_l2_s1              Vk_l2_s1
  -3.667923356528E+00    3.461448595692E-01   -3.672559154065E+00    3.455730261802E-01
  -1.116195123178E+00   -1.633643560553E-02   -1.116154572221E+00   -8.195867525549E-03
  -1.116244438761E-01   -2.128019181118E-03   -1.116153790407E-01   -4.410025546282E-04
   1.161839199152E+00   -5.750301614174E-02    1.163721549742E+00    3.618627024380E-02
   4.152709647070E+00    3.496472171536E-01    4.085538759554E+00    3.534518905785E-01
