            #Ek_l1_s1              Vk_l1_s1             #Ek_l2_s1              Vk_l2_s1
  -1.991697596981E+00    2.999908903793E-02   -2.004162022622E+00    2.485121923608E-01
  -2.370671597359E-01    3.123076032881E-01   -1.475054025461E-01    2.657485372593E-01
   2.104321004001E-02   -1.406816249439E-01    3.954524013042E-02   -1.634764611806E-01
   6.147015367214E-01    3.404231985513E-01    7.531851115466E-01    3.331237558923E-01
   2.004904921293E+00    7.251453423303E-03    2.005367965600E+00    1.925994206359E-02
