            #Ek_l1_s1              Vk_l1_s1             #Ek_l2_s1              Vk_l2_s1
  -1.960736154738E+00   -6.781045144882E-02   -1.961332817384E+00   -6.209048370161E-02
  -3.074510896730E-01    3.134664051491E-01   -3.122383486510E-01    3.150672733161E-01
   2.539047344198E-04    1.184995352650E-01   -2.419078581478E-04    1.189640552971E-01
   3.080676899512E-01    3.136277369087E-01    3.136404595301E-01    3.150927357764E-01
   1.960758738985E+00   -6.758566242634E-02    1.961360588854E+00   -6.196224325330E-02
